
  ___ ___ ___ _ _ _  
 |   |   |_  | | | | 
 | | | | | . | | | | 
 |__ |  _|___|_____|  24.6.0
 |___|_|             

User:   ram@dasari-ram
Date:   Wed Jul  3 08:42:33 2024
Arch:   x86_64
Pid:    2456
CWD:    /home/ram/Desktop/ASE
Python: 3.10.12
gpaw:   /home/ram/.local/lib/python3.10/site-packages/gpaw
_gpaw:  /home/ram/.local/lib/python3.10/site-packages/
        _gpaw.cpython-310-x86_64-linux-gnu.so
ase:    /home/ram/.local/lib/python3.10/site-packages/ase (version 3.23.0)
numpy:  /home/ram/.local/lib/python3.10/site-packages/numpy (version 1.26.3)
scipy:  /home/ram/.local/lib/python3.10/site-packages/scipy (version 1.12.0)
libxc:  5.1.7
units:  Angstrom and eV
cores: 1
OpenMP: False
OMP_NUM_THREADS: 1

Input parameters:
  basis: dzp
  mode: lcao

System changes: positions, numbers, cell, pbc, initial_charges, initial_magmoms 

Initialize ...

species:
  N:
    name: Nitrogen
    id: c467cdfa1b75f62c8f7a0469921b1cfb
    Z: 7.0
    valence: 5
    core: 2
    charge: 0.0
    file: /home/ram/Desktop/ASE/gpaw-setups-24.1.0/N.LDA.gz
    compensation charges: {type: gauss,
                           rc: 0.18,
                           lmax: 2}
    cutoffs: {filter: 1.11,
              core: 0.96}
    projectors:
      #              energy  rcut
      - 2s(2.00)   -18.420   0.603
      - 2p(3.00)    -7.237   0.529
      -  s           8.791   0.603
      -  p          19.974   0.529
      -  d           0.000   0.577
  
    # LCAO basis set for N:
    #   Name: dzp
    #   File: /home/ram/Desktop/ASE/gpaw-setups-24.1.0/N.dzp.basis.gz
    #   Number of radial functions: 5
    #   Number of spherical harmonics: 13
    #     l=0, rc=4.8594 Bohr: 2s-sz confined orbital
    #     l=1, rc=6.0625 Bohr: 2p-sz confined orbital
    #     l=0, rc=2.6094 Bohr: 2s-dz split-valence wave
    #     l=1, rc=3.2656 Bohr: 2p-dz split-valence wave
    #     l=2, rc=6.0625 Bohr: d-type Gaussian polarization
    #   Number of RI-basis functions 0

Reference energy: -2941.748887  # eV

Spin-paired calculation

Convergence criteria:
 Maximum [total energy] change in last 3 cyles: 0.0005 eV / valence electron
 Maximum integral of absolute [dens]ity change: 0.0001 electrons / valence electron
 Maximum integral of absolute [eigenst]ate change: 4e-08 eV^2 / valence electron
 Maximum number of scf [iter]ations: 333
 (Square brackets indicate name in SCF output, whereas a 'c' in
 the SCF output indicates the quantity has converged.)

Symmetries present (total): 16

  ( 1  0  0)  ( 1  0  0)  ( 1  0  0)  ( 1  0  0)  ( 0  1  0)  ( 0  1  0)
  ( 0  1  0)  ( 0  1  0)  ( 0 -1  0)  ( 0 -1  0)  ( 1  0  0)  ( 1  0  0)
  ( 0  0  1)  ( 0  0 -1)  ( 0  0  1)  ( 0  0 -1)  ( 0  0  1)  ( 0  0 -1)

  ( 0  1  0)  ( 0  1  0)  ( 0 -1  0)  ( 0 -1  0)  ( 0 -1  0)  ( 0 -1  0)
  (-1  0  0)  (-1  0  0)  ( 1  0  0)  ( 1  0  0)  (-1  0  0)  (-1  0  0)
  ( 0  0  1)  ( 0  0 -1)  ( 0  0  1)  ( 0  0 -1)  ( 0  0  1)  ( 0  0 -1)

  (-1  0  0)  (-1  0  0)  (-1  0  0)  (-1  0  0)
  ( 0  1  0)  ( 0  1  0)  ( 0 -1  0)  ( 0 -1  0)
  ( 0  0  1)  ( 0  0 -1)  ( 0  0  1)  ( 0  0 -1)

1 k-point (Gamma)
1 k-point in the irreducible part of the Brillouin zone
       k-points in crystal coordinates                weights
   0:     0.00000000    0.00000000    0.00000000          1/1

Wave functions: LCAO
  Diagonalizer: Serial LAPACK
  Atomic Correction: dense with blas
  Data-type: float
 

Occupation numbers: # Zero width 

Eigensolver
   LCAO using direct dense diagonalizer 

Densities:
  Coarse grid: 28*28*36 grid
  Fine grid: 56*56*72 grid
  Total Charge: 0.000000 

Density mixing:
  Method: separate
  Backend: pulay
  Linear mixing parameter: 0.25
  old densities: 3
  Damping of long wavelength oscillations: 1  # (no daming) 

Hamiltonian:
  XC and Coulomb potentials evaluated on a 56*56*72 grid
  Using the LDA Exchange-Correlation functional
  Interpolation: tri-quintic (5. degree polynomial)
  Poisson solver: FastPoissonSolver using
    Stencil: 6*3+1=19 point O(h^6) finite-difference Laplacian
    FFT axes: []
    FST axes: [0, 1, 2]
 

Memory estimate:
  Process memory now: 367.19 MiB
  Calculator: 13.05 MiB
    Density: 7.37 MiB
      Arrays: 5.31 MiB
      Localized functions: 0.90 MiB
      Mixer: 1.17 MiB
    Hamiltonian: 3.55 MiB
      Arrays: 3.47 MiB
      XC: 0.00 MiB
      Poisson: 0.00 MiB
      vbar: 0.08 MiB
    Wavefunctions: 2.12 MiB
      C [qnM]: 0.00 MiB
      S, T [2 x qmm]: 0.01 MiB
      P [aqMi]: 0.00 MiB
      BasisFunctions: 2.11 MiB
      Eigensolver: 0.00 MiB

Total number of cores used: 1

Number of atoms: 2
Number of atomic orbitals: 26
Number of bands in calculation: 8
Number of valence electrons: 10
Bands to converge: occupied

... initialized

Initializing position-dependent things.

Density initialized from atomic densities
     .--------------.  
    /|              |  
   / |              |  
  /  |              |  
 *   |              |  
 |   |              |  
 |   |    N         |  
 |   |    N         |  
 |   |              |  
 |   .--------------.  
 |  /              /   
 | /              /    
 |/              /     
 *--------------*      

Positions:
   0 N      3.000000    3.000000    3.000000    ( 0.0000,  0.0000,  0.0000)
   1 N      3.000000    3.000000    4.100000    ( 0.0000,  0.0000,  0.0000)

Unit cell:
           periodic     x           y           z      points  spacing
  1. axis:    no     6.000000    0.000000    0.000000    28     0.2143
  2. axis:    no     0.000000    6.000000    0.000000    28     0.2143
  3. axis:    no     0.000000    0.000000    7.100000    36     0.1972

  Lengths:   6.000000   6.000000   7.100000
  Angles:   90.000000  90.000000  90.000000

Effective grid spacing dv^(1/3) = 0.2084

     iter     time        total  log10-change:
                         energy   eigst   dens
iter:   1 08:42:34   -16.018407        c
iter:   2 08:42:34   -15.882625        c -0.98
iter:   3 08:42:34   -15.758726        c -1.12
iter:   4 08:42:34   -15.753257        c -1.96
iter:   5 08:42:34   -15.753192        c -2.81
iter:   6 08:42:34   -15.753178c       c -3.03
iter:   7 08:42:34   -15.753174c       c -3.37
iter:   8 08:42:35   -15.753172c       c -3.56
iter:   9 08:42:35   -15.753172c       c -3.84
iter:  10 08:42:35   -15.753172c       c -4.12c

Converged after 10 iterations.

Dipole moment: (0.000000, 0.000000, 0.000000) |e|*Ang

Energy contributions relative to reference atoms: (reference = -2941.748887)

Kinetic:        +11.650363
Potential:      -14.815827
External:        +0.000000
XC:             -13.337291
Entropy (-ST):   +0.000000
Local:           +0.749582
SIC:             +0.000000
--------------------------
Free energy:    -15.753172
Extrapolated:   -15.753172

 Band  Eigenvalues  Occupancy
    0    -28.17153    2.00000
    1    -13.00859    2.00000
    2    -11.53028    2.00000
    3    -11.53028    2.00000
    4     -9.81403    2.00000
    5     -1.73144    0.00000
    6     -1.73144    0.00000
    7      9.51173    0.00000

Fermi level: -5.77274

Gap: 8.083 eV
Transition (v -> c):
  (s=0, k=0, n=4, [[0.00, 0.00, 0.00]]) -> (s=0, k=0, n=5, [[0.00, 0.00, 0.00]])
No difference between direct/indirect transitions
